lAMMPS DATA file 

 1740 atoms
 
 1 atom types
 
 -5.8 11 xlo xhi
 -3.6 13.2 ylo yhi
 -7.94 56 zlo zhi

Masses

1 12.010700 

 Atoms 

1	1	3.99239	3.81797	-3.97332
2	1	2.59628	3.36518	-3.98367
3	1	3.99401	5.28567	-3.99276
4	1	2.59919	5.73937	-4.01408
5	1	1.73586	4.55301	-4.00824
6	1	0.02129	5.80822	-2.73975
7	1	0.88351	6.99379	-2.74617
8	1	0.29842	4.56116	-3.54447
9	1	2.15154	7.10809	-3.55787
10	1	5.14704	6.13498	-3.51163
11	1	4.62856	7.30707	-2.71073
12	1	3.23451	7.76012	-2.73255
13	1	5.14371	2.98226	-3.46811
14	1	6.07973	3.83719	-2.64576
15	1	6.08243	5.30442	-2.66677
16	1	2.14475	2.00963	-3.4925
17	1	3.2263	1.37934	-2.64919
18	1	4.6215	1.83338	-2.63684
19	1	0.87425	2.14756	-2.68601
20	1	0.01541	3.33537	-2.70993
21	1	1.60641	0.511	-0.77974
22	1	2.97091	0.69613	-1.37656
23	1	0.63333	1.45738	-1.41477
24	1	4.19506	0.70631	-0.60688
25	1	5.20325	1.42599	-1.35563
26	1	6.39911	2.08038	-0.73387
27	1	6.65059	3.41637	-1.36392
28	1	6.65771	5.76482	-1.39866
29	1	7.02637	4.60154	-0.62301
30	1	5.21576	7.75624	-1.44436
31	1	6.41574	7.1233	-0.80871
32	1	2.98344	8.48325	-1.48048
33	1	4.21105	8.50233	-0.71471
34	1	0.64679	7.71913	-1.49345
35	1	1.62013	8.686	-0.8866
36	1	-0.73498	5.81866	-1.48311
37	1	-0.36561	7.00673	-0.74202
38	1	-0.7431	3.35978	-1.45409
39	1	-1.35082	4.59869	-0.86396
40	1	-0.381	2.18954	-0.68353
41	1	7.29066	4.62367	0.83014
42	1	6.97301	5.98599	2.94868
43	1	6.5886	5.8344	1.47125
44	1	6.47392	7.20557	0.75312
45	1	5.43148	8.14649	2.90212
46	1	5.19871	7.78487	1.42828
47	1	4.28411	8.8081	0.73082
48	1	2.89951	8.97086	2.86273
49	1	2.92012	8.52744	1.39223
50	1	1.56925	8.80469	0.6743
51	1	0.37785	8.13155	2.84701
52	1	0.64278	7.77091	1.37766
53	1	-0.61937	7.19858	0.70222
54	1	-1.18206	5.97451	2.85883
55	1	-0.76567	5.8254	1.38798
56	1	-1.46789	4.62035	0.69757
57	1	-1.20217	3.3179	2.89193
58	1	-0.78337	3.42438	1.41802
59	1	-0.64111	2.03507	0.76442
60	1	0.35033	1.15418	2.93493
61	1	0.61597	1.47777	1.45782
62	1	1.55309	0.43644	0.78282
63	1	2.87948	0.34338	2.97286
64	1	2.8977	0.74895	1.49352
65	1	4.2631	0.45321	0.84684
66	1	5.40247	1.18153	2.9928
67	1	5.16979	1.50253	1.51236
68	1	6.45094	2.04951	0.82781
69	1	6.95756	3.32903	2.98408
70	1	6.57491	3.44115	1.50417
71	1	7.15313	4.68549	5.1498
72	1	6.70141	4.66893	3.68612
73	1	6.93529	6.04438	7.31982
74	1	6.50954	5.88747	5.85643
75	1	6.35152	7.22013	5.11015
76	1	5.98873	6.92989	3.64817
77	1	5.38583	8.21163	7.28061
78	1	5.12952	7.82406	5.81902
79	1	4.20805	8.79691	5.0681
80	1	4.08146	8.33649	3.60944
81	1	2.85108	9.03984	7.24382
82	1	2.86946	8.5615	5.78588
83	1	1.5455	8.78441	5.03822
84	1	1.70987	8.32261	3.58293
85	1	0.32015	8.19853	7.22599
86	1	0.61183	7.80666	5.77098
87	1	-0.59686	7.20491	5.03586
88	1	-0.20211	6.91235	3.58139
89	1	-1.23792	6.0353	7.23717
90	1	-0.78158	5.87249	5.78079
91	1	-1.42503	4.67633	5.05951
92	1	-0.94318	4.65366	3.60165
93	1	-1.25372	3.36978	7.27169
94	1	-0.80035	3.48952	5.81067
95	1	-0.62627	2.13724	5.10043
96	1	-0.23398	2.38852	3.63821
97	1	0.29887	1.20132	7.31244
98	1	0.58304	1.5545	5.84779
99	1	1.52474	0.56837	5.13979
100	1	1.6828	0.99445	3.67492
101	1	2.83635	0.38158	7.34326
102	1	2.84657	0.82725	5.87809
103	1	4.18521	0.58445	5.16676
104	1	4.05297	1.01098	3.70164
105	1	5.36532	1.22193	7.35609
106	1	5.10247	1.58	5.8917
107	1	6.32694	2.15953	5.17018
108	1	5.96196	2.41647	3.70527
109	1	6.92397	3.38143	7.3477
110	1	6.49563	3.50869	5.88382
111	1	7.11966	4.73563	9.52179
112	1	6.67265	4.72179	8.05718
113	1	6.89188	6.0883	11.69551
114	1	6.46938	5.93532	10.23039
115	1	6.30924	7.27366	9.49076
116	1	5.95278	6.99265	8.02645
117	1	5.33696	8.25199	11.6632
118	1	5.08238	7.87249	10.19897
119	1	4.16173	8.85335	9.45335
120	1	4.03572	8.40499	7.99161
121	1	2.80536	9.08906	11.62879
122	1	2.8202	8.61778	10.16856
123	1	1.49386	8.85023	9.42431
124	1	1.65392	8.39799	7.96658
125	1	0.26957	8.25816	11.61071
126	1	0.55728	7.87084	10.15365
127	1	-0.65391	7.26772	9.42039
128	1	-0.26464	6.98073	7.96364
129	1	-1.28303	6.08914	11.622
130	1	-0.83265	5.93126	10.16303
131	1	-1.47467	4.73073	9.44492
132	1	-1.00305	4.71054	7.98454
133	1	-1.28305	3.42314	11.6555
134	1	-0.83888	3.54447	10.1918
135	1	-0.66709	2.18913	9.48382
136	1	-0.28556	2.43639	8.01904
137	1	0.27095	1.25575	11.69121
138	1	0.54865	1.60617	10.22511
139	1	1.48497	0.61238	9.51791
140	1	1.63643	1.03028	8.05179
141	1	2.80606	0.42519	11.71476
142	1	2.81326	0.86907	10.24952
143	1	4.15209	0.62165	9.53687
144	1	4.01754	1.04335	8.07176
145	1	5.33875	1.25979	11.72289
146	1	5.07401	1.61812	10.25894
147	1	6.2994	2.20082	9.53808
148	1	5.93576	2.45586	8.07372
149	1	6.89349	3.42427	11.71627
150	1	6.46525	3.55229	10.2521
151	1	7.08562	4.77422	13.89382
152	1	6.63635	4.76187	12.42934
153	1	6.85215	6.11939	16.07188
154	1	6.42824	5.9676	14.60663
155	1	6.2607	7.30752	13.87041
156	1	5.90455	7.03005	12.4048
157	1	5.28657	8.27553	16.0465
158	1	5.03194	7.9008	14.5805
159	1	4.11529	8.88791	13.83735
160	1	3.98656	8.44411	12.37422
161	1	2.76218	9.12966	16.01348
162	1	2.77225	8.66049	14.55243
163	1	1.44792	8.90515	13.80855
164	1	1.60452	8.45322	12.35041
165	1	0.21672	8.32197	15.99412
166	1	0.505	7.93291	14.53801
167	1	-0.70281	7.32402	13.80462
168	1	-0.31401	7.03958	12.34732
169	1	-1.31926	6.13825	16.00638
170	1	-0.87034	5.9862	14.54665
171	1	-1.50298	4.78037	13.82937
172	1	-1.03623	4.76502	12.36731
173	1	-1.29288	3.47364	16.03809
174	1	-0.85474	3.59839	14.57306
175	1	-0.68408	2.2436	13.86424
176	1	-0.30765	2.4928	12.39863
177	1	0.25776	1.30454	16.06678
178	1	0.53361	1.65785	14.6015
179	1	1.46204	0.65951	13.89127
180	1	1.61122	1.07983	12.42597
181	1	2.78815	0.45643	16.08464
182	1	2.79402	0.90556	14.62102
183	1	4.12993	0.65508	13.90464
184	1	3.99235	1.08119	12.44106
185	1	5.32535	1.28302	16.09093
186	1	5.05681	1.64618	14.62825
187	1	6.27839	2.23444	13.90519
188	1	5.91038	2.49263	12.44203
189	1	6.87432	3.45393	16.08647
190	1	6.44151	3.58412	14.62319
191	1	7.06201	4.80008	18.26789
192	1	6.6105	4.78814	16.80363
193	1	6.81155	6.13649	20.44941
194	1	6.39319	5.98543	18.98265
195	1	6.21171	7.32646	18.25085
196	1	5.85755	7.05173	16.7841
197	1	5.22232	8.26747	20.43061
198	1	4.97523	7.90418	18.96064
199	1	4.06446	8.90179	18.2236
200	1	3.9351	8.46712	16.75721
201	1	2.71621	9.13777	20.40097
202	1	2.71683	8.68327	18.93516
203	1	1.40016	8.96735	18.19303
204	1	1.55177	8.51301	16.73522
205	1	0.14601	8.40634	20.38261
206	1	0.43298	8.02083	18.92414
207	1	-0.75766	7.38282	18.18851
208	1	-0.36488	7.10374	16.73149
209	1	-1.32393	6.1762	20.3916
210	1	-0.88498	6.04004	18.92786
211	1	-1.50735	4.82653	18.21382
212	1	-1.04998	4.81696	16.74905
213	1	-1.26909	3.52491	20.4181
214	1	-0.84272	3.64949	18.95057
215	1	-0.68469	2.29376	18.242
216	1	-0.31203	2.54413	16.77635
217	1	0.2564	1.34778	20.44003
218	1	0.53119	1.69868	18.97478
219	1	1.44916	0.69295	18.26317
220	1	1.5987	1.11667	16.79914
221	1	2.77607	0.48433	20.45896
222	1	2.78382	0.92744	18.99268
223	1	4.11865	0.67323	18.27549
224	1	3.9804	1.10227	16.81193
225	1	5.31049	1.3054	20.46759
226	1	5.04846	1.66157	19.00025
227	1	6.26896	2.25348	18.2768
228	1	5.89903	2.51355	16.81327
229	1	6.85421	3.47522	20.46326
230	1	6.42842	3.60286	18.99647
231	1	7.01767	4.81962	22.64571
232	1	6.57626	4.80512	21.17797
233	1	6.83652	6.17374	24.80633
234	1	6.34775	5.99437	23.36603
235	1	6.15392	7.32212	22.6258
236	1	5.80019	7.04579	21.16064
237	1	5.23777	8.32897	24.7784
238	1	4.92394	7.87913	23.3484
239	1	4.00271	8.85541	22.60632
240	1	3.86767	8.43134	21.13742
241	1	2.69162	9.18103	24.76543
242	1	2.6698	8.62656	23.3289
243	1	1.37376	9.01182	22.58411
244	1	1.47955	8.56873	21.11979
245	1	0.44886	7.97081	24.78
246	1	0.12989	8.41508	23.33097
247	1	-0.80967	7.41123	22.57702
248	1	-0.40872	7.17953	21.11535
249	1	-1.38847	6.20128	24.75119
250	1	-0.8405	6.05706	23.31989
251	1	-1.46029	4.85903	22.59189
252	1	-1.00564	4.86196	21.12681
253	1	-1.35874	3.51147	24.75753
254	1	-0.81854	3.67934	23.33541
255	1	-0.66864	2.33869	22.61099
256	1	-0.29005	2.5933	21.14936
257	1	0.20037	1.31903	24.78898
258	1	0.53015	1.73771	23.35467
259	1	1.44248	0.73854	22.63615
260	1	1.59424	1.15579	21.17052
261	1	2.75276	0.46943	24.81657
262	1	2.76545	0.97732	23.37296
263	1	4.09407	0.71999	22.65368
264	1	3.96365	1.1353	21.18441
265	1	5.30633	1.30543	24.82918
266	1	5.01173	1.70896	23.38206
267	1	6.23058	2.28959	22.65668
268	1	5.87443	2.5399	21.18686
269	1	6.86647	3.4899	24.82534
270	1	6.38334	3.63308	23.37916
271	1	6.5347	4.84482	27.03657
272	1	7.06977	4.84031	25.6018
273	1	6.32951	6.04588	29.22502
274	1	6.76316	6.17831	27.75991
275	1	5.77569	7.08776	27.01782
276	1	6.20618	7.38705	25.57831
277	1	4.92628	7.96414	29.20519
278	1	5.19659	8.31414	27.73644
279	1	3.85972	8.48654	27.00338
280	1	4.02596	8.94774	25.55513
281	1	2.67489	8.73016	29.18406
282	1	2.69077	9.17743	27.71686
283	1	1.50059	8.55097	26.98115
284	1	1.33004	9.00195	25.52394
285	1	0.41857	7.98796	29.17275
286	1	0.15805	8.35319	27.7078
287	1	-0.43331	7.13637	26.97331
288	1	-0.80551	7.44167	25.51622
289	1	-0.97148	6.06203	29.16823
290	1	-1.39463	6.18888	27.70019
291	1	-1.08676	4.86784	26.9841
292	1	-1.57551	4.85502	25.53634
293	1	-0.92473	3.68428	29.18112
294	1	-1.33446	3.53935	27.71165
295	1	-0.34131	2.61478	26.99579
296	1	-0.75905	2.29776	25.55769
297	1	0.47346	1.76248	29.2025
298	1	0.21855	1.39354	27.73764
299	1	1.55976	1.20349	27.02035
300	1	1.40154	0.69156	25.58728
301	1	2.72463	1.01209	29.22663
302	1	2.73282	0.55256	27.76515
303	1	3.92457	1.18777	27.04023
304	1	4.09532	0.67784	25.60755
305	1	4.98074	1.74184	29.24113
306	1	5.25649	1.36914	27.78021
307	1	5.83176	2.58591	27.0461
308	1	6.26717	2.27083	25.61263
309	1	6.35817	3.67246	29.23981
310	1	6.79653	3.52812	27.77769
311	1	6.53438	4.87625	31.42344
312	1	6.99351	4.87152	29.9597
313	1	6.32507	6.08056	33.6052
314	1	6.76705	6.21597	32.14223
315	1	5.78065	7.13818	31.40481
316	1	6.15124	7.39487	29.93815
317	1	4.91504	8.00407	33.58396
318	1	5.19277	8.36657	32.11965
319	1	3.85306	8.5426	31.3837
320	1	4.00492	8.96658	29.91763
321	1	2.64801	8.74244	33.56275
322	1	2.65913	9.1968	32.09865
323	1	1.47075	8.55145	31.36602
324	1	1.33888	8.98076	29.90021
325	1	0.38213	8.00395	33.54765
326	1	0.12199	8.37228	32.08337
327	1	-0.45258	7.14512	31.35659
328	1	-0.81122	7.40841	29.89
329	1	-1.00908	6.06885	33.54307
330	1	-1.43393	6.20445	32.0774
331	1	-1.16564	4.87173	31.35986
332	1	-1.60597	4.86311	29.89223
333	1	-0.98973	3.68406	33.55327
334	1	-1.40968	3.53707	32.0871
335	1	-0.41109	2.60856	31.37685
336	1	-0.76109	2.34012	29.90913
337	1	0.41947	1.75862	33.57579
338	1	0.16407	1.38435	32.1118
339	1	1.5157	1.20339	31.40191
340	1	1.38637	0.76879	29.93807
341	1	2.68751	1.02015	33.60169
342	1	2.69929	0.55491	32.14131
343	1	3.8983	1.1962	31.42366
344	1	4.04904	0.75779	29.96258
345	1	4.95396	1.7595	33.61862
346	1	5.2364	1.38113	32.15986
347	1	5.81992	2.60335	31.43161
348	1	6.19748	2.33142	29.9704
349	1	6.34361	3.69625	33.61926
350	1	6.78998	3.54981	32.15908
351	1	6.50675	4.90271	35.80464
352	1	6.97512	4.8975	34.3437
353	1	6.29358	6.10616	37.98718
354	1	6.7393	6.24155	36.52549
355	1	5.75645	7.16546	35.78558
356	1	6.13578	7.42804	34.32257
357	1	4.88174	8.02657	37.96372
358	1	5.16174	8.39048	36.50066
359	1	3.82308	8.56008	35.76222
360	1	3.97588	8.99041	34.29863
361	1	2.61189	8.75367	37.9392
362	1	2.62409	9.20726	36.47557
363	1	1.43978	8.55638	35.74184
364	1	1.30908	8.98978	34.27808
365	1	0.34722	8.01105	37.92122
366	1	0.08966	8.37798	36.45676
367	1	-0.48443	7.15057	35.73042
368	1	-0.84488	7.41599	34.26565
369	1	-1.04757	6.07861	37.91599
370	1	-1.47031	6.21422	36.45029
371	1	-1.20865	4.87979	35.73295
372	1	-1.65334	4.87328	34.26711
373	1	-1.03591	3.69498	37.92696
374	1	-1.45559	3.54664	36.4611
375	1	-0.45873	2.61611	35.75058
376	1	-0.814	2.34131	34.28556
377	1	0.37558	1.77322	37.95133
378	1	0.12241	1.3961	36.48759
379	1	1.47495	1.2199	35.7772
380	1	1.34699	0.77743	34.3153
381	1	2.64644	1.0449	37.97932
382	1	2.66162	0.57889	36.51877
383	1	3.85946	1.22369	35.8011
384	1	4.01508	0.77921	34.34201
385	1	4.91215	1.78848	37.99854
386	1	5.19653	1.41007	36.53971
387	1	5.78339	2.63138	35.81139
388	1	6.16799	2.35529	34.35251
389	1	6.30625	3.72251	38.00103
390	1	6.75481	3.575	36.54137
391	1	6.4695	4.92833	40.18692
392	1	6.94002	4.92197	38.72667
393	1	6.25234	6.13277	42.36845
394	1	6.70167	6.26744	40.90806
395	1	5.72026	7.19115	40.16634
396	1	6.10213	7.45348	38.70429
397	1	4.83877	8.05149	42.34195
398	1	5.12115	8.41526	40.87976
399	1	3.78318	8.57998	40.13946
400	1	3.93715	9.0093	38.67622
401	1	2.56702	8.77225	42.31349
402	1	2.58072	9.22438	40.84988
403	1	1.39952	8.56882	40.11557
404	1	1.27103	8.99964	38.65135
405	1	0.3032	8.02618	42.29295
406	1	0.04791	8.39113	40.82791
407	1	-0.5251	7.16261	40.10259
408	1	-0.88228	7.42634	38.63707
409	1	-1.0936	6.09497	42.28775
410	1	-1.51438	6.22944	40.82154
411	1	-1.25486	4.89358	40.10578
412	1	-1.69723	4.88629	38.63948
413	1	-1.0859	3.71176	42.3005
414	1	-1.5042	3.56162	40.8345
415	1	-0.50687	2.63013	40.12535
416	1	-0.85976	2.35346	38.66016
417	1	0.32695	1.7918	42.32732
418	1	0.07643	1.41239	40.86364
419	1	1.43046	1.23966	40.15428
420	1	1.30619	0.79643	38.69205
421	1	2.59974	1.06939	42.35762
422	1	2.61821	0.60252	40.89721
423	1	3.81567	1.25029	40.18048
424	1	3.97373	0.80661	38.72099
425	1	4.86529	1.81606	42.37902
426	1	5.15202	1.43699	40.92063
427	1	5.74092	2.6581	40.19281
428	1	6.12664	2.38173	38.73396
429	1	6.26211	3.74902	42.38286
430	1	6.71341	3.60004	40.9242
431	1	6.41682	4.95579	44.5678
432	1	6.895	4.94822	43.11016
433	1	6.18421	6.15623	46.74953
434	1	6.64475	6.29263	45.29182
435	1	5.66903	7.21552	44.54523
436	1	6.05758	7.4798	43.08552
437	1	4.77717	8.06693	46.71931
438	1	5.06649	8.4358	45.25918
439	1	3.73296	8.59916	44.5145
440	1	3.88997	9.0315	43.05273
441	1	2.51439	8.78028	46.68793
442	1	2.52981	9.23849	45.22509
443	1	1.35279	8.58345	44.48723
444	1	1.22485	9.01611	43.02363
445	1	0.26138	8.03623	46.66462
446	1	0.00362	8.40453	45.20001
447	1	-0.56828	7.17847	44.47328
448	1	-0.92699	7.44273	43.00823
449	1	-1.1278	6.11284	46.66086
450	1	-1.55496	6.2478	45.19512
451	1	-1.29955	4.91363	44.47789
452	1	-1.74496	4.90483	43.01236
453	1	-1.12331	3.74046	46.67509
454	1	-1.54775	3.58584	45.21027
455	1	-0.55412	2.65369	44.49986
456	1	-0.90881	2.3721	43.03583
457	1	0.28406	1.82979	46.70489
458	1	0.03062	1.44183	45.24255
459	1	1.38208	1.26806	44.53107
460	1	1.25933	0.81913	43.07024
461	1	2.54716	1.11141	46.73614
462	1	2.5682	0.63671	45.2775
463	1	3.76394	1.28298	44.55928
464	1	3.92617	0.83454	43.10158
465	1	4.80213	1.85847	46.75977
466	1	5.09577	1.4725	45.30354
467	1	5.6869	2.68938	44.57332
468	1	6.07847	2.40921	43.11674
469	1	6.19473	3.78248	46.76394
470	1	6.65559	3.63022	45.30808
471	1	6.39005	4.98577	48.95941
472	1	6.83102	4.97866	47.48869
473	1	6.66859	6.35039	49.65283
474	1	5.63537	7.26333	48.93508
475	1	5.996	7.50154	47.46209
476	1	5.05694	8.53376	49.58866
477	1	3.68493	8.65784	48.90067
478	1	3.83086	9.04976	47.42458
479	1	2.47132	9.35622	49.57644
480	1	1.2871	8.64029	48.87061
481	1	1.17579	9.03132	47.39186
482	1	-0.10193	8.50109	49.52144
483	1	-0.64613	7.22347	48.8561
484	1	-0.97066	7.45922	47.37597
485	1	-1.69123	6.30302	49.54535
486	1	-1.38236	4.94128	48.86225
487	1	-1.78593	4.93134	47.38247
488	1	-1.6792	3.5889	49.53705
489	1	-0.63213	2.66365	48.8868
490	1	-0.95236	2.40247	47.40894
491	1	-0.07502	1.39924	49.59948
492	1	1.31812	1.26547	48.91985
493	1	1.20817	0.85502	47.4449
494	1	2.51409	0.5795	49.60869
495	1	3.71856	1.28126	48.94954
496	1	3.87126	0.87251	47.47763
497	1	5.09258	1.42978	49.6636
498	1	5.65571	2.70056	48.96474
499	1	6.0155	2.44295	47.49449
500	1	6.67809	3.63461	49.64254
501	1	3.16655	3.99943	54.36275
502	1	1.69957	3.99136	54.34445
503	1	3.61297	5.39692	54.35958
504	1	1.23885	5.38424	54.32961
505	1	2.42158	6.25301	54.33882
506	1	5.18816	3.35092	53.09052
507	1	5.63473	4.74739	53.08755
508	1	4.02049	2.84219	53.90154
509	1	3.19444	1.88638	53.0746
510	1	4.97941	5.84273	53.895
511	1	1.72822	1.87772	53.05655
512	1	4.85956	7.09674	53.06295
513	1	0.8705	2.82435	53.86245
514	1	3.6685	7.95226	53.0414
515	1	-0.28212	3.32012	53.02267
516	1	2.42106	7.68175	53.84969
517	1	-0.74255	4.7126	53.00742
518	1	-0.11945	5.81587	53.83015
519	1	1.19265	7.93989	53.0101
520	1	0.01004	7.07157	53.00118
521	1	3.65619	1.28336	51.81983
522	1	5.639	2.73961	51.83578
523	1	1.30619	1.26999	51.79049
524	1	6.35464	4.97777	51.83075
525	1	-0.69295	2.70363	51.7568
526	1	5.58389	7.31352	51.80593
527	1	-1.42956	4.93505	51.73176
528	1	3.67492	8.68313	51.77077
529	1	-0.68042	7.27937	51.72487
530	1	1.21404	8.67021	51.73919
531	1	5.01353	1.52011	51.22458
532	1	2.49315	0.88301	51.05566
533	1	6.37755	3.73505	51.087
534	1	-0.03782	1.49123	51.16166
535	1	6.55192	6.33078	51.21395
536	1	-1.42015	3.69185	50.9886
537	1	4.86609	8.30767	51.03703
538	1	-1.61977	6.28545	51.10782
539	1	2.44995	9.27276	51.13832
540	1	0.04874	8.2799	50.9744
541	1	10.82914	4.77448	-7.84118
542	1	10.77457	6.06287	-5.66359
543	1	10.25842	5.98004	-7.10848
544	1	10.41738	7.30528	-7.84059
545	1	9.96612	8.51255	-5.66269
546	1	9.50211	8.27616	-7.10818
547	1	9.24602	9.58703	-7.83934
548	1	8.44291	10.59506	-5.66129
549	1	8.0757	10.22935	-7.1076
550	1	7.42999	11.39943	-7.83796
551	1	6.35426	12.11031	-5.65993
552	1	6.11817	11.65164	-7.1071
553	1	5.14531	12.56851	-7.83712
554	1	3.90197	12.91504	-5.65963
555	1	3.81865	12.40668	-7.10697
556	1	2.61158	12.98078	-7.83744
557	1	1.32027	12.92975	-5.66062
558	1	1.3984	12.41946	-7.10755
559	1	0.07355	12.59252	-7.83895
560	1	-1.14091	12.14714	-5.66252
561	1	-0.90721	11.6845	-7.10869
562	1	-2.21966	11.43695	-7.84088
563	1	-3.23766	10.63846	-5.66432
564	1	-2.87018	10.26991	-7.10967
565	1	-4.03946	9.62491	-7.84204
566	1	-4.75852	8.55042	-5.66466
567	1	-4.29383	8.31387	-7.10977
568	1	-5.20335	7.33571	-7.84164
569	1	-5.55038	6.09153	-5.66334
570	1	-5.03586	6.01109	-7.10874
571	1	-5.59612	4.79796	-7.83961
572	1	-5.53624	3.50871	-5.66074
573	1	-5.02411	3.59141	-7.10683
574	1	-5.18172	2.26386	-7.83663
575	1	-4.72252	1.05818	-5.65761
576	1	-4.2634	1.29392	-7.10449
577	1	-4.00512	-0.0181	-7.83371
578	1	-3.19509	-1.02307	-5.65512
579	1	-2.83204	-0.65795	-7.10257
580	1	-2.18446	-1.82758	-7.83186
581	1	-1.10441	-2.53646	-5.65403
582	1	-0.8714	-2.07683	-7.10133
583	1	0.10268	-2.99135	-7.83145
584	1	1.34858	-3.33706	-5.65434
585	1	1.42886	-2.82648	-7.10119
586	1	2.63562	-3.39772	-7.83251
587	1	3.92833	-3.34742	-5.65597
588	1	3.84718	-2.8348	-7.10211
589	1	5.17016	-3.0069	-7.83464
590	1	6.3862	-2.56452	-5.65841
591	1	6.14959	-2.09946	-7.10363
592	1	7.45988	-1.85325	-7.83724
593	1	8.48078	-1.05867	-5.66104
594	1	8.10978	-0.68798	-7.10528
595	1	9.27705	-0.04484	-7.83948
596	1	9.99907	1.0273	-5.66292
597	1	9.53037	1.26451	-7.10687
598	1	10.43786	2.24087	-7.84088
599	1	10.78751	3.48349	-5.66375
600	1	10.26948	3.56377	-7.10807
601	1	10.91043	4.77198	-3.48011
602	1	10.40456	4.77069	-4.92818
603	1	10.81453	6.06437	-1.30095
604	1	10.32256	5.98504	-2.75063
605	1	10.49135	7.32422	-3.47981
606	1	10.01195	7.16832	-4.92829
607	1	9.99995	8.52105	-1.30042
608	1	9.55768	8.2963	-2.7507
609	1	9.30575	9.62313	-3.47867
610	1	8.8994	9.32906	-4.92793
611	1	8.46431	10.60562	-1.29958
612	1	8.11608	10.25798	-2.75091
613	1	7.46992	11.4449	-3.47717
614	1	7.17576	11.04356	-4.92765
615	1	6.36463	12.11562	-1.29816
616	1	6.14147	11.68324	-2.75111
617	1	5.16556	12.61905	-3.47603
618	1	5.00967	12.14949	-4.92739
619	1	3.90636	12.91847	-1.29754
620	1	3.82681	12.44093	-2.75123
621	1	2.61271	13.03556	-3.47614
622	1	2.60903	12.54123	-4.92767
623	1	1.32055	12.93544	-1.29781
624	1	1.3917	12.45707	-2.75178
625	1	0.0541	12.64962	-3.47749
626	1	0.20427	12.17703	-4.92858
627	1	-1.14657	12.15711	-1.299
628	1	-0.92972	11.72334	-2.75288
629	1	-2.25965	11.49012	-3.47948
630	1	-1.96943	11.08607	-4.93018
631	1	-3.25006	10.65055	-1.30035
632	1	-2.90773	10.3047	-2.75361
633	1	-4.09815	9.66731	-3.48034
634	1	-3.69438	9.37306	-4.93038
635	1	-4.77636	8.56032	-1.30049
636	1	-4.34211	8.33906	-2.75365
637	1	-5.27224	7.35976	-3.48002
638	1	-4.79662	7.20608	-4.92989
639	1	-5.56874	6.09663	-1.29958
640	1	-5.08724	6.02225	-2.75271
641	1	-5.6646	4.80083	-3.47812
642	1	-5.16609	4.80285	-4.92839
643	1	-5.54944	3.50901	-1.29753
644	1	-5.0702	3.58832	-2.75087
645	1	-5.24069	2.24771	-3.47513
646	1	-4.76956	2.40369	-4.92605
647	1	-4.72902	1.0561	-1.29489
648	1	-4.29922	1.27888	-2.74871
649	1	-4.05022	-0.04944	-3.47237
650	1	-3.65168	0.24347	-4.9238
651	1	-3.19695	-1.02741	-1.29283
652	1	-2.85654	-0.68303	-2.74656
653	1	-2.2147	-1.87176	-3.47082
654	1	-1.92538	-1.4704	-4.92235
655	1	-1.10537	-2.54806	-1.29201
656	1	-0.88488	-2.11327	-2.74479
657	1	0.08892	-3.04788	-3.47046
658	1	0.24125	-2.57462	-4.92123
659	1	1.3533	-3.35703	-1.29226
660	1	1.42888	-2.87198	-2.74408
661	1	2.64207	-3.46134	-3.47152
662	1	2.64127	-2.96188	-4.92155
663	1	3.94085	-3.37312	-1.2936
664	1	3.86406	-2.88487	-2.74459
665	1	5.19904	-3.07284	-3.4735
666	1	5.04381	-2.59498	-4.92271
667	1	6.41071	-2.59407	-1.29545
668	1	6.18554	-2.15052	-2.74557
669	1	7.51244	-1.9155	-3.47622
670	1	7.21526	-1.50586	-4.92415
671	1	8.51992	-1.09091	-1.29771
672	1	8.16591	-0.73508	-2.74658
673	1	9.35075	-0.09393	-3.47849
674	1	8.93855	0.2045	-4.92562
675	1	10.04789	1.00568	-1.29956
676	1	9.59856	1.23148	-2.74813
677	1	10.52029	2.21475	-3.4799
678	1	10.03665	2.36981	-4.92724
679	1	10.83249	3.47427	-1.30059
680	1	10.338	3.55051	-2.74984
681	1	10.9341	4.76948	0.87787
682	1	10.44142	4.76632	-0.57325
683	1	10.82055	6.06411	3.05434
684	1	10.3392	5.98341	1.60236
685	1	10.50843	7.32404	0.87683
686	1	10.04042	7.16999	-0.57383
687	1	10.00191	8.51919	3.05293
688	1	9.5686	8.29417	1.60155
689	1	9.31712	9.62241	0.87741
690	1	8.92316	9.33438	-0.57438
691	1	8.46452	10.59908	3.05146
692	1	8.12107	10.25087	1.60056
693	1	7.47307	11.43662	0.87656
694	1	7.1861	11.04094	-0.57493
695	1	6.36505	12.10629	3.05049
696	1	6.1431	11.66936	1.60015
697	1	5.16668	12.60376	0.8771
698	1	5.01419	12.14225	-0.57514
699	1	3.90826	12.90384	3.05035
700	1	3.82897	12.42073	1.59984
701	1	2.61603	13.01655	0.87734
702	1	2.61148	12.53199	-0.57547
703	1	1.32581	12.91879	3.05075
704	1	1.3972	12.43567	1.59973
705	1	0.06053	12.63353	0.87732
706	1	0.20523	12.17201	-0.57598
707	1	-1.13782	12.1429	3.05099
708	1	-0.92093	11.706	1.59952
709	1	-2.25265	11.48028	0.87658
710	1	-1.97067	11.08583	-0.57663
711	1	-3.24041	10.6415	3.05102
712	1	-2.89757	10.29402	1.59933
713	1	-4.09121	9.66265	0.87604
714	1	-3.69896	9.3759	-0.57698
715	1	-4.76665	8.5562	3.05078
716	1	-4.331	8.33384	1.5994
717	1	-5.26484	7.35873	0.87618
718	1	-4.80199	7.20948	-0.57666
719	1	-5.55846	6.09613	3.05131
720	1	-5.0748	6.02211	1.60009
721	1	-5.65496	4.80271	0.87736
722	1	-5.16913	4.80605	-0.57538
723	1	-5.53785	3.51237	3.05215
724	1	-5.05496	3.59313	1.60125
725	1	-5.22682	2.25366	0.87905
726	1	-4.76643	2.40756	-0.57365
727	1	-4.71662	1.06322	3.05355
728	1	-4.28214	1.28858	1.60285
729	1	-4.0356	-0.03956	0.88118
730	1	-3.64529	0.24796	-0.57154
731	1	-3.18565	-1.01694	3.05564
732	1	-2.84113	-0.67081	1.60464
733	1	-2.20283	-1.86155	0.88301
734	1	-1.91847	-1.4686	-0.56977
735	1	-1.09524	-2.53491	3.05787
736	1	-0.87295	-2.10222	1.60624
737	1	0.09658	-3.04405	0.88474
738	1	0.24638	-2.58357	-0.5681
739	1	1.3588	-3.34699	3.05978
740	1	1.43744	-2.86812	1.60764
741	1	2.64988	-3.46397	0.88416
742	1	2.65089	-2.97494	-0.5677
743	1	3.94542	-3.36766	3.06056
744	1	3.87306	-2.88767	1.60796
745	1	5.21055	-3.08284	0.88388
746	1	5.06131	-2.61626	-0.568
747	1	6.41426	-2.59102	3.06133
748	1	6.19821	-2.15842	1.60785
749	1	7.52991	-1.92785	0.88279
750	1	7.24296	-1.52868	-0.56893
751	1	8.52045	-1.08395	3.06147
752	1	8.18162	-0.74256	1.60694
753	1	9.37599	-0.10722	0.88308
754	1	8.9822	0.17813	-0.57012
755	1	10.04724	1.00874	3.05999
756	1	9.61696	1.22514	1.60557
757	1	10.54507	2.20732	0.87942
758	1	10.07489	2.35632	-0.57185
759	1	10.83861	3.47518	3.057
760	1	10.35842	3.54664	1.60392
761	1	10.92649	4.77345	5.2314
762	1	10.43979	4.768	3.77892
763	1	10.8134	6.06984	7.40474
764	1	10.3315	5.98757	5.95369
765	1	10.50527	7.32573	5.22872
766	1	10.04223	7.16937	3.77753
767	1	9.99851	8.52411	7.40126
768	1	9.56368	8.29512	5.95145
769	1	9.31335	9.62072	5.22594
770	1	8.91917	9.32765	3.77584
771	1	8.46468	10.60464	7.39795
772	1	8.11911	10.25159	5.94929
773	1	7.4735	11.43586	5.22398
774	1	7.1865	11.03513	3.77487
775	1	6.36697	12.11344	7.3957
776	1	6.14438	11.67056	5.94792
777	1	5.16823	12.60143	5.22277
778	1	5.01564	12.1317	3.77405
779	1	3.91003	12.90975	7.39473
780	1	3.83145	12.42024	5.94709
781	1	2.61872	13.0116	5.22289
782	1	2.61523	12.51859	3.77407
783	1	1.32765	12.92105	7.39522
784	1	1.40092	12.4321	5.94721
785	1	0.06539	12.62625	5.22363
786	1	0.21216	12.15715	3.7741
787	1	-1.13457	12.14197	7.39647
788	1	-0.91575	11.70086	5.94764
789	1	-2.24632	11.47422	5.2245
790	1	-1.96201	11.07466	3.77433
791	1	-3.23594	10.63963	7.3978
792	1	-2.89171	10.2898	5.94826
793	1	-4.08493	9.65915	5.22504
794	1	-3.68973	9.3692	3.77462
795	1	-4.76284	8.55543	7.39857
796	1	-4.32622	8.33194	5.94875
797	1	-5.25993	7.35785	5.22522
798	1	-4.79277	7.2072	3.77487
799	1	-5.55729	6.09675	7.39866
800	1	-5.07142	6.022	5.94919
801	1	-5.65089	4.80378	5.2254
802	1	-5.15893	4.80739	3.77568
803	1	-5.54035	3.51323	7.39849
804	1	-5.05363	3.59426	5.94974
805	1	-5.22412	2.25603	5.22585
806	1	-4.75668	2.41226	3.77661
807	1	-4.72124	1.06351	7.39881
808	1	-4.28196	1.29091	5.95064
809	1	-4.0326	-0.03524	5.2271
810	1	-3.63508	0.2563	3.77796
811	1	-3.19005	-1.01604	7.40041
812	1	-2.84068	-0.66615	5.95227
813	1	-2.19938	-1.85418	5.22939
814	1	-1.90974	-1.45703	3.77969
815	1	-1.09811	-2.53061	7.40308
816	1	-0.87184	-2.09298	5.9542
817	1	0.09994	-3.03133	5.23203
818	1	0.2548	-2.56732	3.7815
819	1	1.35567	-3.33789	7.40645
820	1	1.43758	-2.85498	5.95631
821	1	2.64997	-3.45218	5.23465
822	1	2.6549	-2.96573	3.78302
823	1	3.94011	-3.35517	7.40924
824	1	3.86942	-2.8729	5.95801
825	1	5.20691	-3.06836	5.2361
826	1	5.06195	-2.6056	3.78331
827	1	6.40457	-2.57506	7.41148
828	1	6.18872	-2.14069	5.95923
829	1	7.52106	-1.91218	5.23755
830	1	7.2404	-1.52043	3.7838
831	1	8.50535	-1.06649	7.41219
832	1	8.16436	-0.72333	5.95931
833	1	9.35826	-0.0899	5.23686
834	1	8.9685	0.19316	3.78265
835	1	10.03004	1.02244	7.41113
836	1	9.59818	1.24104	5.95826
837	1	10.53329	2.21589	5.23498
838	1	10.07304	2.3618	3.78136
839	1	10.82568	3.48386	7.40839
840	1	10.34491	3.55522	5.95617
841	1	10.91641	4.78183	9.58079
842	1	10.42906	4.77655	8.12949
843	1	10.8032	6.07811	11.75225
844	1	10.32238	5.99636	10.30172
845	1	10.49985	7.33342	9.57717
846	1	10.03668	7.1761	8.12691
847	1	9.99206	8.53224	11.74794
848	1	9.55866	8.30372	10.29832
849	1	9.31171	9.62917	9.57274
850	1	8.91717	9.33447	8.12364
851	1	8.46188	10.61417	11.74353
852	1	8.11769	10.2618	10.29494
853	1	7.47465	11.44657	9.56946
854	1	7.18776	11.04393	8.12154
855	1	6.36615	12.1249	11.74009
856	1	6.14507	11.68232	10.2925
857	1	5.16947	12.61278	9.56703
858	1	5.01773	12.14049	8.11969
859	1	3.90943	12.92096	11.73799
860	1	3.83232	12.43113	10.29097
861	1	2.61928	13.02047	9.56654
862	1	2.6173	12.5249	8.1193
863	1	1.3272	12.92882	11.73785
864	1	1.4022	12.43926	10.29081
865	1	0.06655	12.63019	9.56738
866	1	0.21496	12.15916	8.11954
867	1	-1.13283	12.14438	11.73918
868	1	-0.91266	11.70301	10.29148
869	1	-2.24288	11.47413	9.56915
870	1	-1.95778	11.07373	8.12042
871	1	-3.23059	10.63842	11.74118
872	1	-2.88606	10.28863	10.29256
873	1	-4.0796	9.65785	9.57062
874	1	-3.68481	9.36757	8.12122
875	1	-4.75566	8.55423	11.74262
876	1	-4.32004	8.3304	10.29352
877	1	-5.25595	7.3578	9.57131
878	1	-4.78975	7.20653	8.12185
879	1	-5.5529	6.09751	11.74304
880	1	-5.06841	6.02167	10.29408
881	1	-5.65157	4.80484	9.57111
882	1	-5.15976	4.80749	8.12221
883	1	-5.54217	3.51475	11.74274
884	1	-5.05625	3.5942	10.29438
885	1	-5.23002	2.25628	9.57088
886	1	-4.76141	2.41204	8.12274
887	1	-4.72837	1.06376	11.74272
888	1	-4.28912	1.29011	10.29498
889	1	-4.04079	-0.03627	9.5715
890	1	-3.64137	0.25594	8.12374
891	1	-3.1988	-1.01648	11.74407
892	1	-2.84918	-0.6669	10.29645
893	1	-2.20692	-1.85442	9.57379
894	1	-1.91557	-1.45577	8.12574
895	1	-1.10604	-2.52886	11.74693
896	1	-0.87972	-2.09098	10.29875
897	1	0.09374	-3.02754	9.577
898	1	0.25003	-2.56118	8.12805
899	1	1.34807	-3.33168	11.75095
900	1	1.43015	-2.84837	10.30183
901	1	2.6433	-3.44387	9.58096
902	1	2.64916	-2.95535	8.13092
903	1	3.93113	-3.34471	11.75481
904	1	3.86047	-2.86219	10.30462
905	1	5.1981	-3.0562	9.58378
906	1	5.05303	-2.59155	8.13267
907	1	6.39302	-2.56175	11.7579
908	1	6.17699	-2.12692	10.30689
909	1	7.50882	-1.89763	9.58612
910	1	7.2269	-1.50386	8.13422
911	1	8.4913	-1.05277	11.75913
912	1	8.14985	-0.70871	10.30773
913	1	9.34337	-0.07596	9.58582
914	1	8.95149	0.20923	8.13366
915	1	10.01521	1.03453	11.75849
916	1	9.58297	1.25403	10.30702
917	1	10.51927	2.22686	9.58443
918	1	10.0575	2.37401	8.13252
919	1	10.81215	3.49368	11.75604
920	1	10.33169	3.5657	10.30489
921	1	10.90437	4.79057	13.926
922	1	10.41567	4.78603	12.4762
923	1	10.80298	6.08782	16.09385
924	1	10.31258	6.00519	14.64757
925	1	10.49048	7.34151	13.92216
926	1	10.0266	7.18446	12.47298
927	1	9.9929	8.54501	16.08932
928	1	9.55125	8.31286	14.64368
929	1	9.30543	9.63781	13.91723
930	1	8.91072	9.34313	12.46884
931	1	8.46353	10.63091	16.0846
932	1	8.11309	10.27261	14.63974
933	1	7.4713	11.45726	13.9132
934	1	7.18478	11.05427	12.46577
935	1	6.36713	12.14592	16.08046
936	1	6.14235	11.69553	14.6365